ITEM: TIMESTEP
0
ITEM: NUMBER OF ATOMS
4
ITEM: BOX BOUNDS pp pp pp
0.0 10.0
0.0 10.0
0.0 10.0
ITEM: ATOMS id type x y z
1 3 4.920368474 5.140978471 5.289051281000001
2 2 4.136339830000001 4.709831566 4.865305819
3 2 5.530962614 4.45916422 5.663295368
4 2 4.630827995000001 5.772096778 5.993072464000001
